# vtk DataFile Version 3.0
SPH Performance Data
ASCII
DATASET UNSTRUCTURED_GRID
POINTS 15 float
100 21.4596 10.2238
200 29.8241 10.2655
300 31.9225 10.2286
400 32.2579 10.1769
500 32.6751 10.317
600 33.0377 10.3135
700 31.7298 10.3046
800 30.5866 10.2805
900 30.5087 10.252
1000 29.896 10.2317
1100 32.7316 10.23
1200 32.7998 10.2307
1300 31.9952 10.2208
1400 32.1017 10.215
1500 31.6839 10.2006
POINT_DATA 15
SCALARS Speedup float 1
LOOKUP_TABLE default
2.09899
2.90528
3.1209
3.16971
3.16712
3.20333
3.07918
2.97521
2.97588
2.92191
3.19957
3.20604
3.1304
3.1426
3.1061
