# vtk DataFile Version 3.0
SPH Performance Data
ASCII
DATASET UNSTRUCTURED_GRID
POINTS 2 float
100 21.4596 10.2238
200 29.8241 10.2655
POINT_DATA 2
SCALARS Speedup float 1
LOOKUP_TABLE default
2.09899
2.90528
