# vtk DataFile Version 3.0
SPH Performance Data
ASCII
DATASET UNSTRUCTURED_GRID
POINTS 1 float
100 21.4596 10.2238
POINT_DATA 1
SCALARS Speedup float 1
LOOKUP_TABLE default
2.09899
