# vtk DataFile Version 3.0
SPH Performance Data
ASCII
DATASET UNSTRUCTURED_GRID
POINTS 4 float
100 21.4596 10.2238
200 29.8241 10.2655
300 31.9225 10.2286
400 32.2579 10.1769
POINT_DATA 4
SCALARS Speedup float 1
LOOKUP_TABLE default
2.09899
2.90528
3.1209
3.16971
