# vtk DataFile Version 3.0
SPH Performance Data
ASCII
DATASET UNSTRUCTURED_GRID
POINTS 10 float
100 21.4596 10.2238
200 29.8241 10.2655
300 31.9225 10.2286
400 32.2579 10.1769
500 32.6751 10.317
600 33.0377 10.3135
700 31.7298 10.3046
800 30.5866 10.2805
900 30.5087 10.252
1000 29.896 10.2317
POINT_DATA 10
SCALARS Speedup float 1
LOOKUP_TABLE default
2.09899
2.90528
3.1209
3.16971
3.16712
3.20333
3.07918
2.97521
2.97588
2.92191
